<?xml version="1.0" encoding="UTF-8"?>

<!-- generated on Mon Nov 10 22:33:15 2014 by SUMO sumo Version 0.19.0
<?xml version="1.0" encoding="UTF-8"?>

<configuration xmlns:xsi="http://www.w3.org/2001/XMLSchema-instance" xsi:noNamespaceSchemaLocation="http://sumo-sim.org/xsd/sumoConfiguration.xsd">

    <input>
        <net-file value="data/cross.net.xml"/>
        <route-files value="data/cross.rou.xml"/>
        <additional-files value="data/cross.det.xml"/>
    </input>

    <output>
        <tripinfo-output value="tripinfo.xml"/>
        <save-state.prefix value="data/state"/>
    </output>

    <time>
        <begin value="0"/>
    </time>

    <report>
        <verbose value="true"/>
        <no-step-log value="true"/>
    </report>

    <traci_server>
        <remote-port value="8873"/>
    </traci_server>

</configuration>
-->

<tripinfos>
    <tripinfo id="left_0" depart="0.00" departLane="52o_0" departPos="5.10" departSpeed="0.00" departDelay="0.00" arrival="92.00" arrivalLane="51i_0" arrivalPos="10.00" arrivalSpeed="11.75" duration="92.00" routeLength="1005.40" waitSteps="0" rerouteNo="0" devices="tripinfo_left_0" vType="typeWE" vaporized=""/>
    <tripinfo id="right_2" depart="3.00" departLane="51o_0" departPos="5.10" departSpeed="0.00" departDelay="0.00" arrival="94.00" arrivalLane="52i_0" arrivalPos="10.00" arrivalSpeed="11.45" duration="91.00" routeLength="1005.40" waitSteps="0" rerouteNo="0" devices="tripinfo_right_2" vType="typeWE" vaporized=""/>
    <tripinfo id="left_1" depart="4.00" departLane="52o_0" departPos="5.10" departSpeed="0.00" departDelay="2.00" arrival="95.00" arrivalLane="51i_0" arrivalPos="10.00" arrivalSpeed="11.45" duration="91.00" routeLength="1005.40" waitSteps="1" rerouteNo="0" devices="tripinfo_left_1" vType="typeWE" vaporized=""/>
    <tripinfo id="right_3" depart="7.00" departLane="51o_0" departPos="5.10" departSpeed="0.00" departDelay="3.00" arrival="99.00" arrivalLane="52i_0" arrivalPos="10.00" arrivalSpeed="11.17" duration="92.00" routeLength="1005.40" waitSteps="1" rerouteNo="0" devices="tripinfo_right_3" vType="typeWE" vaporized=""/>
    <tripinfo id="left_4" depart="9.00" departLane="52o_0" departPos="5.10" departSpeed="0.00" departDelay="3.00" arrival="102.00" arrivalLane="51i_0" arrivalPos="10.00" arrivalSpeed="11.26" duration="93.00" routeLength="1005.40" waitSteps="1" rerouteNo="0" devices="tripinfo_left_4" vType="typeWE" vaporized=""/>
    <tripinfo id="right_5" depart="12.00" departLane="51o_0" departPos="5.10" departSpeed="0.00" departDelay="3.00" arrival="105.00" arrivalLane="52i_0" arrivalPos="10.00" arrivalSpeed="11.43" duration="93.00" routeLength="1005.40" waitSteps="1" rerouteNo="0" devices="tripinfo_right_5" vType="typeWE" vaporized=""/>
    <tripinfo id="left_6" depart="22.00" departLane="52o_0" departPos="5.10" departSpeed="0.00" departDelay="0.00" arrival="113.00" arrivalLane="51i_0" arrivalPos="10.00" arrivalSpeed="11.31" duration="91.00" routeLength="1005.40" waitSteps="0" rerouteNo="0" devices="tripinfo_left_6" vType="typeWE" vaporized=""/>
    <tripinfo id="left_7" depart="31.00" departLane="52o_0" departPos="5.10" departSpeed="0.00" departDelay="0.00" arrival="122.00" arrivalLane="51i_0" arrivalPos="10.00" arrivalSpeed="11.78" duration="91.00" routeLength="1005.40" waitSteps="0" rerouteNo="0" devices="tripinfo_left_7" vType="typeWE" vaporized=""/>
    <tripinfo id="left_8" depart="35.00" departLane="52o_0" departPos="5.10" departSpeed="0.00" departDelay="2.00" arrival="128.00" arrivalLane="51i_0" arrivalPos="10.00" arrivalSpeed="11.16" duration="93.00" routeLength="1005.40" waitSteps="1" rerouteNo="0" devices="tripinfo_left_8" vType="typeWE" vaporized=""/>
    <tripinfo id="left_9" depart="41.00" departLane="52o_0" departPos="5.10" departSpeed="0.00" departDelay="0.00" arrival="134.00" arrivalLane="51i_0" arrivalPos="10.00" arrivalSpeed="11.58" duration="93.00" routeLength="1005.40" waitSteps="0" rerouteNo="0" devices="tripinfo_left_9" vType="typeWE" vaporized=""/>
    <tripinfo id="right_10" depart="42.00" departLane="51o_0" departPos="5.10" departSpeed="0.00" departDelay="0.00" arrival="134.00" arrivalLane="52i_0" arrivalPos="10.00" arrivalSpeed="11.53" duration="92.00" routeLength="1005.40" waitSteps="0" rerouteNo="0" devices="tripinfo_right_10" vType="typeWE" vaporized=""/>
    <tripinfo id="left_11" depart="45.00" departLane="52o_0" departPos="5.10" departSpeed="0.00" departDelay="0.00" arrival="137.00" arrivalLane="51i_0" arrivalPos="10.00" arrivalSpeed="11.58" duration="92.00" routeLength="1005.40" waitSteps="1" rerouteNo="0" devices="tripinfo_left_11" vType="typeWE" vaporized=""/>
    <tripinfo id="left_12" depart="53.00" departLane="52o_0" departPos="5.10" departSpeed="0.00" departDelay="0.00" arrival="145.00" arrivalLane="51i_0" arrivalPos="10.00" arrivalSpeed="11.39" duration="92.00" routeLength="1005.40" waitSteps="0" rerouteNo="0" devices="tripinfo_left_12" vType="typeWE" vaporized=""/>
    <tripinfo id="right_13" depart="55.00" departLane="51o_0" departPos="5.10" departSpeed="0.00" departDelay="0.00" arrival="146.00" arrivalLane="52i_0" arrivalPos="10.00" arrivalSpeed="11.32" duration="91.00" routeLength="1005.40" waitSteps="0" rerouteNo="0" devices="tripinfo_right_13" vType="typeWE" vaporized=""/>
    <tripinfo id="right_14" depart="61.00" departLane="51o_0" departPos="5.10" departSpeed="0.00" departDelay="0.00" arrival="153.00" arrivalLane="52i_0" arrivalPos="10.00" arrivalSpeed="11.37" duration="92.00" routeLength="1005.40" waitSteps="0" rerouteNo="0" devices="tripinfo_right_14" vType="typeWE" vaporized=""/>
    <tripinfo id="right_15" depart="69.00" departLane="51o_0" departPos="5.10" departSpeed="0.00" departDelay="0.00" arrival="161.00" arrivalLane="52i_0" arrivalPos="10.00" arrivalSpeed="11.33" duration="92.00" routeLength="1005.40" waitSteps="0" rerouteNo="0" devices="tripinfo_right_15" vType="typeWE" vaporized=""/>
    <tripinfo id="right_16" depart="84.00" departLane="51o_0" departPos="5.10" departSpeed="0.00" departDelay="0.00" arrival="176.00" arrivalLane="52i_0" arrivalPos="10.00" arrivalSpeed="11.66" duration="92.00" routeLength="1005.40" waitSteps="0" rerouteNo="0" devices="tripinfo_right_16" vType="typeWE" vaporized=""/>
    <tripinfo id="down_18" depart="89.00" departLane="54o_0" departPos="10.00" departSpeed="0.00" departDelay="0.00" arrival="180.00" arrivalLane="53i_0" arrivalPos="10.00" arrivalSpeed="11.27" duration="91.00" routeLength="1000.50" waitSteps="0" rerouteNo="0" devices="tripinfo_down_18" vType="typeNS" vaporized=""/>
    <tripinfo id="down_19" depart="97.00" departLane="54o_0" departPos="10.00" departSpeed="0.00" departDelay="1.00" arrival="187.00" arrivalLane="53i_0" arrivalPos="10.00" arrivalSpeed="11.69" duration="90.00" routeLength="1000.50" waitSteps="1" rerouteNo="0" devices="tripinfo_down_19" vType="typeNS" vaporized=""/>
    <tripinfo id="right_20" depart="99.00" departLane="51o_0" departPos="5.10" departSpeed="0.00" departDelay="0.00" arrival="204.00" arrivalLane="52i_0" arrivalPos="10.00" arrivalSpeed="11.41" duration="105.00" routeLength="1005.40" waitSteps="2" rerouteNo="0" devices="tripinfo_right_20" vType="typeWE" vaporized=""/>
    <tripinfo id="left_17" depart="85.00" departLane="52o_0" departPos="5.10" departSpeed="0.00" departDelay="0.00" arrival="204.00" arrivalLane="51i_0" arrivalPos="10.00" arrivalSpeed="11.30" duration="119.00" routeLength="1005.40" waitSteps="14" rerouteNo="0" devices="tripinfo_left_17" vType="typeWE" vaporized=""/>
    <tripinfo id="right_22" depart="108.00" departLane="51o_0" departPos="5.10" departSpeed="0.00" departDelay="0.00" arrival="207.00" arrivalLane="52i_0" arrivalPos="10.00" arrivalSpeed="11.61" duration="99.00" routeLength="1005.40" waitSteps="0" rerouteNo="0" devices="tripinfo_right_22" vType="typeWE" vaporized=""/>
    <tripinfo id="left_21" depart="99.00" departLane="52o_0" departPos="5.10" departSpeed="0.00" departDelay="0.00" arrival="208.00" arrivalLane="51i_0" arrivalPos="10.00" arrivalSpeed="11.33" duration="109.00" routeLength="1005.40" waitSteps="3" rerouteNo="0" devices="tripinfo_left_21" vType="typeWE" vaporized=""/>
    <tripinfo id="right_23" depart="114.00" departLane="51o_0" departPos="5.10" departSpeed="0.00" departDelay="0.00" arrival="210.00" arrivalLane="52i_0" arrivalPos="10.00" arrivalSpeed="7.63" duration="96.00" routeLength="1005.40" waitSteps="0" rerouteNo="0" devices="tripinfo_right_23" vType="typeWE" vaporized=""/>
    <tripinfo id="down_24" depart="122.00" departLane="54o_0" departPos="10.00" departSpeed="0.00" departDelay="0.00" arrival="213.00" arrivalLane="53i_0" arrivalPos="10.00" arrivalSpeed="11.27" duration="91.00" routeLength="1000.50" waitSteps="0" rerouteNo="0" devices="tripinfo_down_24" vType="typeNS" vaporized=""/>
    <tripinfo id="left_26" depart="131.00" departLane="52o_0" departPos="5.10" departSpeed="0.00" departDelay="0.00" arrival="223.00" arrivalLane="51i_0" arrivalPos="10.00" arrivalSpeed="11.38" duration="92.00" routeLength="1005.40" waitSteps="0" rerouteNo="0" devices="tripinfo_left_26" vType="typeWE" vaporized=""/>
    <tripinfo id="left_27" depart="135.00" departLane="52o_0" departPos="5.10" departSpeed="0.00" departDelay="0.00" arrival="227.00" arrivalLane="51i_0" arrivalPos="10.00" arrivalSpeed="11.57" duration="92.00" routeLength="1005.40" waitSteps="1" rerouteNo="0" devices="tripinfo_left_27" vType="typeWE" vaporized=""/>
    <tripinfo id="right_25" depart="125.00" departLane="51o_0" departPos="5.10" departSpeed="0.00" departDelay="0.00" arrival="231.00" arrivalLane="52i_0" arrivalPos="10.00" arrivalSpeed="11.83" duration="106.00" routeLength="1005.40" waitSteps="3" rerouteNo="0" devices="tripinfo_right_25" vType="typeWE" vaporized=""/>
    <tripinfo id="left_28" depart="140.00" departLane="52o_0" departPos="5.10" departSpeed="0.00" departDelay="2.00" arrival="233.00" arrivalLane="51i_0" arrivalPos="10.00" arrivalSpeed="11.26" duration="93.00" routeLength="1005.40" waitSteps="1" rerouteNo="0" devices="tripinfo_left_28" vType="typeWE" vaporized=""/>
    <tripinfo id="right_30" depart="145.00" departLane="51o_0" departPos="5.10" departSpeed="0.00" departDelay="0.00" arrival="238.00" arrivalLane="52i_0" arrivalPos="10.00" arrivalSpeed="11.71" duration="93.00" routeLength="1005.40" waitSteps="0" rerouteNo="0" devices="tripinfo_right_30" vType="typeWE" vaporized=""/>
    <tripinfo id="left_29" depart="146.00" departLane="52o_0" departPos="5.10" departSpeed="0.00" departDelay="4.00" arrival="238.00" arrivalLane="51i_0" arrivalPos="10.00" arrivalSpeed="11.61" duration="92.00" routeLength="1005.40" waitSteps="1" rerouteNo="0" devices="tripinfo_left_29" vType="typeWE" vaporized=""/>
    <tripinfo id="left_31" depart="153.00" departLane="52o_0" departPos="5.10" departSpeed="0.00" departDelay="0.00" arrival="244.00" arrivalLane="51i_0" arrivalPos="10.00" arrivalSpeed="11.35" duration="91.00" routeLength="1005.40" waitSteps="0" rerouteNo="0" devices="tripinfo_left_31" vType="typeWE" vaporized=""/>
    <tripinfo id="left_32" depart="157.00" departLane="52o_0" departPos="5.10" departSpeed="0.00" departDelay="1.00" arrival="249.00" arrivalLane="51i_0" arrivalPos="10.00" arrivalSpeed="11.47" duration="92.00" routeLength="1005.40" waitSteps="1" rerouteNo="0" devices="tripinfo_left_32" vType="typeWE" vaporized=""/>
    <tripinfo id="left_33" depart="162.00" departLane="52o_0" departPos="5.10" departSpeed="0.00" departDelay="2.00" arrival="255.00" arrivalLane="51i_0" arrivalPos="10.00" arrivalSpeed="11.23" duration="93.00" routeLength="1005.40" waitSteps="1" rerouteNo="0" devices="tripinfo_left_33" vType="typeWE" vaporized=""/>
    <tripinfo id="right_35" depart="167.00" departLane="51o_0" departPos="5.10" departSpeed="0.00" departDelay="0.00" arrival="258.00" arrivalLane="52i_0" arrivalPos="10.00" arrivalSpeed="11.36" duration="91.00" routeLength="1005.40" waitSteps="0" rerouteNo="0" devices="tripinfo_right_35" vType="typeWE" vaporized=""/>
    <tripinfo id="left_34" depart="167.00" departLane="52o_0" departPos="5.10" departSpeed="0.00" departDelay="3.00" arrival="260.00" arrivalLane="51i_0" arrivalPos="10.00" arrivalSpeed="11.27" duration="93.00" routeLength="1005.40" waitSteps="1" rerouteNo="0" devices="tripinfo_left_34" vType="typeWE" vaporized=""/>
    <tripinfo id="down_39" depart="172.00" departLane="54o_0" departPos="10.00" departSpeed="0.00" departDelay="0.00" arrival="266.00" arrivalLane="53i_0" arrivalPos="10.00" arrivalSpeed="11.71" duration="94.00" routeLength="1000.50" waitSteps="0" rerouteNo="0" devices="tripinfo_down_39" vType="typeNS" vaporized=""/>
    <tripinfo id="right_36" depart="171.00" departLane="51o_0" departPos="5.10" departSpeed="0.00" departDelay="3.00" arrival="283.00" arrivalLane="52i_0" arrivalPos="10.00" arrivalSpeed="11.23" duration="112.00" routeLength="1005.40" waitSteps="7" rerouteNo="0" devices="tripinfo_right_36" vType="typeWE" vaporized=""/>
    <tripinfo id="left_37" depart="173.00" departLane="52o_0" departPos="5.10" departSpeed="0.00" departDelay="4.00" arrival="283.00" arrivalLane="51i_0" arrivalPos="10.00" arrivalSpeed="11.74" duration="110.00" routeLength="1005.40" waitSteps="4" rerouteNo="0" devices="tripinfo_left_37" vType="typeWE" vaporized=""/>
    <tripinfo id="right_40" depart="176.00" departLane="51o_0" departPos="5.10" departSpeed="0.00" departDelay="0.00" arrival="286.00" arrivalLane="52i_0" arrivalPos="10.00" arrivalSpeed="11.44" duration="110.00" routeLength="1005.40" waitSteps="2" rerouteNo="0" devices="tripinfo_right_40" vType="typeWE" vaporized=""/>
    <tripinfo id="left_38" depart="178.00" departLane="52o_0" departPos="5.10" departSpeed="0.00" departDelay="6.00" arrival="286.00" arrivalLane="51i_0" arrivalPos="10.00" arrivalSpeed="10.63" duration="108.00" routeLength="1005.40" waitSteps="1" rerouteNo="0" devices="tripinfo_left_38" vType="typeWE" vaporized=""/>
    <tripinfo id="right_41" depart="182.00" departLane="51o_0" departPos="5.10" departSpeed="0.00" departDelay="1.00" arrival="289.00" arrivalLane="52i_0" arrivalPos="10.00" arrivalSpeed="8.65" duration="107.00" routeLength="1005.40" waitSteps="1" rerouteNo="0" devices="tripinfo_right_41" vType="typeWE" vaporized=""/>
    <tripinfo id="left_43" depart="194.00" departLane="52o_0" departPos="5.10" departSpeed="0.00" departDelay="0.00" arrival="289.00" arrivalLane="51i_0" arrivalPos="10.00" arrivalSpeed="7.17" duration="95.00" routeLength="1005.40" waitSteps="0" rerouteNo="0" devices="tripinfo_left_43" vType="typeWE" vaporized=""/>
    <tripinfo id="left_44" depart="198.00" departLane="52o_0" departPos="5.10" departSpeed="0.00" departDelay="2.00" arrival="292.00" arrivalLane="51i_0" arrivalPos="10.00" arrivalSpeed="7.01" duration="94.00" routeLength="1005.40" waitSteps="1" rerouteNo="0" devices="tripinfo_left_44" vType="typeWE" vaporized=""/>
    <tripinfo id="right_42" depart="187.00" departLane="51o_0" departPos="5.10" departSpeed="0.00" departDelay="4.00" arrival="292.00" arrivalLane="52i_0" arrivalPos="10.00" arrivalSpeed="6.36" duration="105.00" routeLength="1005.40" waitSteps="1" rerouteNo="0" devices="tripinfo_right_42" vType="typeWE" vaporized=""/>
    <tripinfo id="right_46" depart="200.00" departLane="51o_0" departPos="5.10" departSpeed="0.00" departDelay="0.00" arrival="295.00" arrivalLane="52i_0" arrivalPos="10.00" arrivalSpeed="6.21" duration="95.00" routeLength="1005.40" waitSteps="0" rerouteNo="0" devices="tripinfo_right_46" vType="typeWE" vaporized=""/>
    <tripinfo id="left_45" depart="204.00" departLane="52o_0" departPos="5.10" departSpeed="0.00" departDelay="5.00" arrival="296.00" arrivalLane="51i_0" arrivalPos="10.00" arrivalSpeed="11.25" duration="92.00" routeLength="1005.40" waitSteps="0" rerouteNo="0" devices="tripinfo_left_45" vType="typeWE" vaporized=""/>
    <tripinfo id="left_47" depart="212.00" departLane="52o_0" departPos="5.10" departSpeed="0.00" departDelay="0.00" arrival="304.00" arrivalLane="51i_0" arrivalPos="10.00" arrivalSpeed="11.39" duration="92.00" routeLength="1005.40" waitSteps="0" rerouteNo="0" devices="tripinfo_left_47" vType="typeWE" vaporized=""/>
    <tripinfo id="right_48" depart="217.00" departLane="51o_0" departPos="5.10" departSpeed="0.00" departDelay="0.00" arrival="310.00" arrivalLane="52i_0" arrivalPos="10.00" arrivalSpeed="11.40" duration="93.00" routeLength="1005.40" waitSteps="0" rerouteNo="0" devices="tripinfo_right_48" vType="typeWE" vaporized=""/>
    <tripinfo id="left_49" depart="219.00" departLane="52o_0" departPos="5.10" departSpeed="0.00" departDelay="0.00" arrival="311.00" arrivalLane="51i_0" arrivalPos="10.00" arrivalSpeed="11.55" duration="92.00" routeLength="1005.40" waitSteps="0" rerouteNo="0" devices="tripinfo_left_49" vType="typeWE" vaporized=""/>
    <tripinfo id="right_50" depart="228.00" departLane="51o_0" departPos="5.10" departSpeed="0.00" departDelay="0.00" arrival="319.00" arrivalLane="52i_0" arrivalPos="10.00" arrivalSpeed="11.69" duration="91.00" routeLength="1005.40" waitSteps="0" rerouteNo="0" devices="tripinfo_right_50" vType="typeWE" vaporized=""/>
    <tripinfo id="left_51" depart="234.00" departLane="52o_0" departPos="5.10" departSpeed="0.00" departDelay="0.00" arrival="326.00" arrivalLane="51i_0" arrivalPos="10.00" arrivalSpeed="11.52" duration="92.00" routeLength="1005.40" waitSteps="0" rerouteNo="0" devices="tripinfo_left_51" vType="typeWE" vaporized=""/>
    <tripinfo id="left_52" depart="238.00" departLane="52o_0" departPos="5.10" departSpeed="0.00" departDelay="0.00" arrival="331.00" arrivalLane="51i_0" arrivalPos="10.00" arrivalSpeed="11.48" duration="93.00" routeLength="1005.40" waitSteps="1" rerouteNo="0" devices="tripinfo_left_52" vType="typeWE" vaporized=""/>
    <tripinfo id="right_53" depart="240.00" departLane="51o_0" departPos="5.10" departSpeed="0.00" departDelay="0.00" arrival="332.00" arrivalLane="52i_0" arrivalPos="10.00" arrivalSpeed="11.61" duration="92.00" routeLength="1005.40" waitSteps="0" rerouteNo="0" devices="tripinfo_right_53" vType="typeWE" vaporized=""/>
    <tripinfo id="left_54" depart="272.00" departLane="52o_0" departPos="5.10" departSpeed="0.00" departDelay="0.00" arrival="363.00" arrivalLane="51i_0" arrivalPos="10.00" arrivalSpeed="11.54" duration="91.00" routeLength="1005.40" waitSteps="0" rerouteNo="0" devices="tripinfo_left_54" vType="typeWE" vaporized=""/>
    <tripinfo id="left_55" depart="276.00" departLane="52o_0" departPos="5.10" departSpeed="0.00" departDelay="1.00" arrival="369.00" arrivalLane="51i_0" arrivalPos="10.00" arrivalSpeed="11.52" duration="93.00" routeLength="1005.40" waitSteps="1" rerouteNo="0" devices="tripinfo_left_55" vType="typeWE" vaporized=""/>
    <tripinfo id="right_56" depart="286.00" departLane="51o_0" departPos="5.10" departSpeed="0.00" departDelay="2.00" arrival="376.00" arrivalLane="52i_0" arrivalPos="10.00" arrivalSpeed="11.51" duration="90.00" routeLength="1005.40" waitSteps="0" rerouteNo="0" devices="tripinfo_right_56" vType="typeWE" vaporized=""/>
    <tripinfo id="right_57" depart="290.00" departLane="51o_0" departPos="5.10" departSpeed="0.00" departDelay="4.00" arrival="382.00" arrivalLane="52i_0" arrivalPos="10.00" arrivalSpeed="11.67" duration="92.00" routeLength="1005.40" waitSteps="1" rerouteNo="0" devices="tripinfo_right_57" vType="typeWE" vaporized=""/>
    <tripinfo id="right_58" depart="296.00" departLane="51o_0" departPos="5.10" departSpeed="0.00" departDelay="8.00" arrival="388.00" arrivalLane="52i_0" arrivalPos="10.00" arrivalSpeed="11.37" duration="92.00" routeLength="1005.40" waitSteps="0" rerouteNo="0" devices="tripinfo_right_58" vType="typeWE" vaporized=""/>
    <tripinfo id="right_59" depart="300.00" departLane="51o_0" departPos="5.10" departSpeed="0.00" departDelay="9.00" arrival="393.00" arrivalLane="52i_0" arrivalPos="10.00" arrivalSpeed="11.55" duration="93.00" routeLength="1005.40" waitSteps="1" rerouteNo="0" devices="tripinfo_right_59" vType="typeWE" vaporized=""/>
    <tripinfo id="right_60" depart="305.00" departLane="51o_0" departPos="5.10" departSpeed="0.00" departDelay="11.00" arrival="398.00" arrivalLane="52i_0" arrivalPos="10.00" arrivalSpeed="11.49" duration="93.00" routeLength="1005.40" waitSteps="1" rerouteNo="0" devices="tripinfo_right_60" vType="typeWE" vaporized=""/>
    <tripinfo id="down_61" depart="318.00" departLane="54o_0" departPos="10.00" departSpeed="0.00" departDelay="0.00" arrival="410.00" arrivalLane="53i_0" arrivalPos="10.00" arrivalSpeed="11.57" duration="92.00" routeLength="1000.50" waitSteps="0" rerouteNo="0" devices="tripinfo_down_61" vType="typeNS" vaporized=""/>
    <tripinfo id="down_63" depart="331.00" departLane="54o_0" departPos="10.00" departSpeed="0.00" departDelay="0.00" arrival="424.00" arrivalLane="53i_0" arrivalPos="10.00" arrivalSpeed="11.76" duration="93.00" routeLength="1000.50" waitSteps="0" rerouteNo="0" devices="tripinfo_down_63" vType="typeNS" vaporized=""/>
    <tripinfo id="down_64" depart="340.00" departLane="54o_0" departPos="10.00" departSpeed="0.00" departDelay="3.00" arrival="429.00" arrivalLane="53i_0" arrivalPos="10.00" arrivalSpeed="11.55" duration="89.00" routeLength="1000.50" waitSteps="0" rerouteNo="0" devices="tripinfo_down_64" vType="typeNS" vaporized=""/>
    <tripinfo id="down_68" depart="348.00" departLane="54o_0" departPos="10.00" departSpeed="0.00" departDelay="4.00" arrival="438.00" arrivalLane="53i_0" arrivalPos="10.00" arrivalSpeed="11.57" duration="90.00" routeLength="1000.50" waitSteps="0" rerouteNo="0" devices="tripinfo_down_68" vType="typeNS" vaporized=""/>
    <tripinfo id="right_62" depart="322.00" departLane="51o_0" departPos="5.10" departSpeed="0.00" departDelay="0.00" arrival="455.00" arrivalLane="52i_0" arrivalPos="10.00" arrivalSpeed="10.85" duration="133.00" routeLength="1005.40" waitSteps="28" rerouteNo="0" devices="tripinfo_right_62" vType="typeWE" vaporized=""/>
    <tripinfo id="left_65" depart="339.00" departLane="52o_0" departPos="5.10" departSpeed="0.00" departDelay="0.00" arrival="455.00" arrivalLane="51i_0" arrivalPos="10.00" arrivalSpeed="11.56" duration="116.00" routeLength="1005.40" waitSteps="12" rerouteNo="0" devices="tripinfo_left_65" vType="typeWE" vaporized=""/>
    <tripinfo id="right_66" depart="342.00" departLane="51o_0" departPos="5.10" departSpeed="0.00" departDelay="0.00" arrival="458.00" arrivalLane="52i_0" arrivalPos="10.00" arrivalSpeed="11.54" duration="116.00" routeLength="1005.40" waitSteps="11" rerouteNo="0" devices="tripinfo_right_66" vType="typeWE" vaporized=""/>
    <tripinfo id="left_67" depart="344.00" departLane="52o_0" departPos="5.10" departSpeed="0.00" departDelay="0.00" arrival="458.00" arrivalLane="51i_0" arrivalPos="10.00" arrivalSpeed="11.49" duration="114.00" routeLength="1005.40" waitSteps="10" rerouteNo="0" devices="tripinfo_left_67" vType="typeWE" vaporized=""/>
    <tripinfo id="right_70" depart="354.00" departLane="51o_0" departPos="5.10" departSpeed="0.00" departDelay="0.00" arrival="461.00" arrivalLane="52i_0" arrivalPos="10.00" arrivalSpeed="10.84" duration="107.00" routeLength="1005.40" waitSteps="0" rerouteNo="0" devices="tripinfo_right_70" vType="typeWE" vaporized=""/>
    <tripinfo id="left_69" depart="348.00" departLane="52o_0" departPos="5.10" departSpeed="0.00" departDelay="2.00" arrival="461.00" arrivalLane="51i_0" arrivalPos="10.00" arrivalSpeed="11.25" duration="113.00" routeLength="1005.40" waitSteps="6" rerouteNo="0" devices="tripinfo_left_69" vType="typeWE" vaporized=""/>
    <tripinfo id="down_72" depart="377.00" departLane="54o_0" departPos="10.00" departSpeed="0.00" departDelay="0.00" arrival="469.00" arrivalLane="53i_0" arrivalPos="10.00" arrivalSpeed="11.43" duration="92.00" routeLength="1000.50" waitSteps="0" rerouteNo="0" devices="tripinfo_down_72" vType="typeNS" vaporized=""/>
    <tripinfo id="down_73" depart="385.00" departLane="54o_0" departPos="10.00" departSpeed="0.00" departDelay="6.00" arrival="474.00" arrivalLane="53i_0" arrivalPos="10.00" arrivalSpeed="11.57" duration="89.00" routeLength="1000.50" waitSteps="0" rerouteNo="0" devices="tripinfo_down_73" vType="typeNS" vaporized=""/>
    <tripinfo id="down_80" depart="397.00" departLane="54o_0" departPos="10.00" departSpeed="0.00" departDelay="0.00" arrival="488.00" arrivalLane="53i_0" arrivalPos="10.00" arrivalSpeed="11.05" duration="91.00" routeLength="1000.50" waitSteps="0" rerouteNo="0" devices="tripinfo_down_80" vType="typeNS" vaporized=""/>
    <tripinfo id="left_75" depart="388.00" departLane="52o_0" departPos="5.10" departSpeed="0.00" departDelay="0.00" arrival="505.00" arrivalLane="51i_0" arrivalPos="10.00" arrivalSpeed="11.74" duration="117.00" routeLength="1005.40" waitSteps="13" rerouteNo="0" devices="tripinfo_left_75" vType="typeWE" vaporized=""/>
    <tripinfo id="right_71" depart="375.00" departLane="51o_0" departPos="5.10" departSpeed="0.00" departDelay="0.00" arrival="506.00" arrivalLane="52i_0" arrivalPos="10.00" arrivalSpeed="11.45" duration="131.00" routeLength="1005.40" waitSteps="25" rerouteNo="0" devices="tripinfo_right_71" vType="typeWE" vaporized=""/>
    <tripinfo id="left_76" depart="393.00" departLane="52o_0" departPos="5.10" departSpeed="0.00" departDelay="4.00" arrival="508.00" arrivalLane="51i_0" arrivalPos="10.00" arrivalSpeed="11.49" duration="115.00" routeLength="1005.40" waitSteps="10" rerouteNo="0" devices="tripinfo_left_76" vType="typeWE" vaporized=""/>
    <tripinfo id="right_74" depart="383.00" departLane="51o_0" departPos="5.10" departSpeed="0.00" departDelay="0.00" arrival="509.00" arrivalLane="52i_0" arrivalPos="10.00" arrivalSpeed="9.29" duration="126.00" routeLength="1005.40" waitSteps="16" rerouteNo="0" devices="tripinfo_right_74" vType="typeWE" vaporized=""/>
    <tripinfo id="left_77" depart="398.00" departLane="52o_0" departPos="5.10" departSpeed="0.00" departDelay="7.00" arrival="511.00" arrivalLane="51i_0" arrivalPos="10.00" arrivalSpeed="11.67" duration="113.00" routeLength="1005.40" waitSteps="5" rerouteNo="0" devices="tripinfo_left_77" vType="typeWE" vaporized=""/>
    <tripinfo id="right_78" depart="394.00" departLane="51o_0" departPos="5.10" departSpeed="0.00" departDelay="0.00" arrival="512.00" arrivalLane="52i_0" arrivalPos="10.00" arrivalSpeed="7.23" duration="118.00" routeLength="1005.40" waitSteps="9" rerouteNo="0" devices="tripinfo_right_78" vType="typeWE" vaporized=""/>
    <tripinfo id="left_82" depart="413.00" departLane="52o_0" departPos="5.10" departSpeed="0.00" departDelay="0.00" arrival="514.00" arrivalLane="51i_0" arrivalPos="10.00" arrivalSpeed="8.06" duration="101.00" routeLength="1005.40" waitSteps="0" rerouteNo="0" devices="tripinfo_left_82" vType="typeWE" vaporized=""/>
    <tripinfo id="right_79" depart="398.00" departLane="51o_0" departPos="5.10" departSpeed="0.00" departDelay="3.00" arrival="515.00" arrivalLane="52i_0" arrivalPos="10.00" arrivalSpeed="7.44" duration="117.00" routeLength="1005.40" waitSteps="8" rerouteNo="0" devices="tripinfo_right_79" vType="typeWE" vaporized=""/>
    <tripinfo id="left_83" depart="417.00" departLane="52o_0" departPos="5.10" departSpeed="0.00" departDelay="2.00" arrival="517.00" arrivalLane="51i_0" arrivalPos="10.00" arrivalSpeed="6.02" duration="100.00" routeLength="1005.40" waitSteps="1" rerouteNo="0" devices="tripinfo_left_83" vType="typeWE" vaporized=""/>
    <tripinfo id="right_81" depart="412.00" departLane="51o_0" departPos="5.10" departSpeed="0.00" departDelay="0.00" arrival="518.00" arrivalLane="52i_0" arrivalPos="10.00" arrivalSpeed="5.64" duration="106.00" routeLength="1005.40" waitSteps="0" rerouteNo="0" devices="tripinfo_right_81" vType="typeWE" vaporized=""/>
    <tripinfo id="left_84" depart="422.00" departLane="52o_0" departPos="5.10" departSpeed="0.00" departDelay="2.00" arrival="520.00" arrivalLane="51i_0" arrivalPos="10.00" arrivalSpeed="6.61" duration="98.00" routeLength="1005.40" waitSteps="1" rerouteNo="0" devices="tripinfo_left_84" vType="typeWE" vaporized=""/>
    <tripinfo id="right_85" depart="427.00" departLane="51o_0" departPos="5.10" departSpeed="0.00" departDelay="0.00" arrival="521.00" arrivalLane="52i_0" arrivalPos="10.00" arrivalSpeed="5.89" duration="94.00" routeLength="1005.40" waitSteps="0" rerouteNo="0" devices="tripinfo_right_85" vType="typeWE" vaporized=""/>
    <tripinfo id="down_86" depart="457.00" departLane="54o_0" departPos="10.00" departSpeed="0.00" departDelay="0.00" arrival="549.00" arrivalLane="53i_0" arrivalPos="10.00" arrivalSpeed="11.48" duration="92.00" routeLength="1000.50" waitSteps="0" rerouteNo="0" devices="tripinfo_down_86" vType="typeNS" vaporized=""/>
    <tripinfo id="down_88" depart="465.00" departLane="54o_0" departPos="10.00" departSpeed="0.00" departDelay="6.00" arrival="554.00" arrivalLane="53i_0" arrivalPos="10.00" arrivalSpeed="11.52" duration="89.00" routeLength="1000.50" waitSteps="0" rerouteNo="0" devices="tripinfo_down_88" vType="typeNS" vaporized=""/>
    <tripinfo id="down_89" depart="473.00" departLane="54o_0" departPos="10.00" departSpeed="0.00" departDelay="10.00" arrival="562.00" arrivalLane="53i_0" arrivalPos="10.00" arrivalSpeed="11.64" duration="89.00" routeLength="1000.50" waitSteps="0" rerouteNo="0" devices="tripinfo_down_89" vType="typeNS" vaporized=""/>
    <tripinfo id="right_87" depart="458.00" departLane="51o_0" departPos="5.10" departSpeed="0.00" departDelay="0.00" arrival="579.00" arrivalLane="52i_0" arrivalPos="10.00" arrivalSpeed="11.31" duration="121.00" routeLength="1005.40" waitSteps="17" rerouteNo="0" devices="tripinfo_right_87" vType="typeWE" vaporized=""/>
    <tripinfo id="left_92" depart="469.00" departLane="52o_0" departPos="5.10" departSpeed="0.00" departDelay="0.00" arrival="579.00" arrivalLane="51i_0" arrivalPos="10.00" arrivalSpeed="11.63" duration="110.00" routeLength="1005.40" waitSteps="6" rerouteNo="0" devices="tripinfo_left_92" vType="typeWE" vaporized=""/>