<?xml version="1.0" encoding="UTF-8"?>

<!-- generated on Mon 29 Dec 2014 10:22:23 PM GST by SUMO gui Version 0.19.0
<?xml version="1.0" encoding="UTF-8"?>

<configuration xmlns:xsi="http://www.w3.org/2001/XMLSchema-instance" xsi:noNamespaceSchemaLocation="http://sumo-sim.org/xsd/sumo-gui.exeConfiguration.xsd">

    <input>
        <net-file value="data/map.net.xml"/>
        <route-files value="data/map.rou.xml"/>
        <additional-files value="data/map.poly.xml"/>
    </input>

    <output>
        <tripinfo-output value="tripinfo.xml"/>
        <save-state.prefix value="data/state"/>
    </output>

    <time>
        <begin value="0"/>
    </time>

    <report>
        <verbose value="true"/>
        <log value="output.log"/>
        <no-step-log value="true"/>
    </report>

    <traci_server>
        <remote-port value="8873"/>
    </traci_server>

    <gui_only>
        <gui-settings-file value="data/gui-settings.xml"/>
    </gui_only>

</configuration>
-->

<tripinfos>
    <tripinfo id="15" depart="15.00" departLane="161671995#0_0" departPos="5.10" departSpeed="0.00" departDelay="0.00" arrival="52.00" arrivalLane="-161671995#0_0" arrivalPos="215.33" arrivalSpeed="13.68" duration="37.00" routeLength="426.06" waitSteps="0" rerouteNo="0" devices="tripinfo_15" vType="DEFAULT_VEHTYPE" vaporized=""/>
    <tripinfo id="1" depart="1.00" departLane="-96823244#3_0" departPos="5.10" departSpeed="0.00" departDelay="0.00" arrival="64.00" arrivalLane="-96823255_0" arrivalPos="217.72" arrivalSpeed="12.74" duration="63.00" routeLength="467.41" waitSteps="16" rerouteNo="0" devices="tripinfo_1" vType="DEFAULT_VEHTYPE" vaporized=""/>
    <tripinfo id="21" depart="24.00" departLane="96823257_0" departPos="5.10" departSpeed="0.00" departDelay="3.00" arrival="67.00" arrivalLane="96823256_0" arrivalPos="218.58" arrivalSpeed="13.71" duration="43.00" routeLength="469.38" waitSteps="0" rerouteNo="0" devices="tripinfo_21" vType="DEFAULT_VEHTYPE" vaporized=""/>
    <tripinfo id="13" depart="13.00" departLane="-96823251_0" departPos="5.10" departSpeed="0.00" departDelay="0.00" arrival="68.00" arrivalLane="-96823249#1_0" arrivalPos="268.17" arrivalSpeed="13.55" duration="55.00" routeLength="475.95" waitSteps="4" rerouteNo="0" devices="tripinfo_13" vType="DEFAULT_VEHTYPE" vaporized=""/>
    <tripinfo id="22" depart="22.00" departLane="-175565015#2_0" departPos="5.10" departSpeed="0.00" departDelay="0.00" arrival="72.00" arrivalLane="-96823249#1_0" arrivalPos="268.17" arrivalSpeed="12.81" duration="50.00" routeLength="702.23" waitSteps="0" rerouteNo="0" devices="tripinfo_22" vType="DEFAULT_VEHTYPE" vaporized=""/>
    <tripinfo id="20" depart="20.00" departLane="-96823243_0" departPos="5.10" departSpeed="0.00" departDelay="0.00" arrival="75.00" arrivalLane="24448028#2_0" arrivalPos="359.26" arrivalSpeed="12.76" duration="55.00" routeLength="570.14" waitSteps="1" rerouteNo="0" devices="tripinfo_20" vType="DEFAULT_VEHTYPE" vaporized=""/>
    <tripinfo id="30" depart="30.00" departLane="-96823244#5_0" departPos="5.10" departSpeed="0.00" departDelay="0.00" arrival="83.00" arrivalLane="-96823244#5_0" arrivalPos="279.89" arrivalSpeed="5.79" duration="53.00" routeLength="274.79" waitSteps="22" rerouteNo="0" devices="tripinfo_30" vType="DEFAULT_VEHTYPE" vaporized=""/>
    <tripinfo id="45" depart="45.00" departLane="96823254#3_0" departPos="5.10" departSpeed="0.00" departDelay="0.00" arrival="90.00" arrivalLane="175565015#2_0" arrivalPos="255.53" arrivalSpeed="21.93" duration="45.00" routeLength="575.57" waitSteps="0" rerouteNo="0" devices="tripinfo_45" vType="DEFAULT_VEHTYPE" vaporized=""/>
    <tripinfo id="2" depart="2.00" departLane="96823252#2_0" departPos="5.10" departSpeed="0.00" departDelay="0.00" arrival="97.00" arrivalLane="96823252#0_0" arrivalPos="85.62" arrivalSpeed="12.98" duration="95.00" routeLength="293.94" waitSteps="48" rerouteNo="0" devices="tripinfo_2" vType="DEFAULT_VEHTYPE" vaporized=""/>
    <tripinfo id="18" depart="18.00" departLane="161671995#2_0" departPos="5.10" departSpeed="0.00" departDelay="0.00" arrival="98.00" arrivalLane="24511548#1_0" arrivalPos="431.27" arrivalSpeed="21.18" duration="80.00" routeLength="1210.28" waitSteps="0" rerouteNo="0" devices="tripinfo_18" vType="DEFAULT_VEHTYPE" vaporized=""/>
    <tripinfo id="40" depart="40.00" departLane="-96823244#0_0" departPos="5.10" departSpeed="0.00" departDelay="0.00" arrival="103.00" arrivalLane="97817445#1_0" arrivalPos="88.28" arrivalSpeed="13.06" duration="63.00" routeLength="679.34" waitSteps="0" rerouteNo="0" devices="tripinfo_40" vType="DEFAULT_VEHTYPE" vaporized=""/>
    <tripinfo id="7" depart="7.00" departLane="-96823244#5_0" departPos="5.10" departSpeed="0.00" departDelay="0.00" arrival="104.00" arrivalLane="161671995#2_0" arrivalPos="352.85" arrivalSpeed="12.74" duration="97.00" routeLength="1112.77" waitSteps="0" rerouteNo="0" devices="tripinfo_7" vType="DEFAULT_VEHTYPE" vaporized=""/>
    <tripinfo id="6" depart="6.00" departLane="-24511548#2_0" departPos="5.10" departSpeed="0.00" departDelay="0.00" arrival="109.00" arrivalLane="-96823243_0" arrivalPos="215.98" arrivalSpeed="13.13" duration="103.00" routeLength="786.17" waitSteps="37" rerouteNo="0" devices="tripinfo_6" vType="DEFAULT_VEHTYPE" vaporized=""/>
    <tripinfo id="14" depart="14.00" departLane="-24448028#0_0" departPos="5.10" departSpeed="0.00" departDelay="0.00" arrival="115.00" arrivalLane="24448028#1_0" arrivalPos="416.11" arrivalSpeed="12.60" duration="101.00" routeLength="599.31" waitSteps="32" rerouteNo="0" devices="tripinfo_14" vType="DEFAULT_VEHTYPE" vaporized=""/>
    <tripinfo id="12" depart="14.00" departLane="96823254#3_0" departPos="5.10" departSpeed="0.00" departDelay="2.00" arrival="115.00" arrivalLane="96823244#5_0" arrivalPos="279.89" arrivalSpeed="10.24" duration="101.00" routeLength="665.33" waitSteps="28" rerouteNo="0" devices="tripinfo_12" vType="DEFAULT_VEHTYPE" vaporized=""/>
    <tripinfo id="48" depart="48.00" departLane="96823244#5_0" departPos="5.10" departSpeed="0.00" departDelay="0.00" arrival="119.00" arrivalLane="96823244#4_0" arrivalPos="44.18" arrivalSpeed="13.18" duration="71.00" routeLength="643.04" waitSteps="4" rerouteNo="0" devices="tripinfo_48" vType="DEFAULT_VEHTYPE" vaporized=""/>
    <tripinfo id="4" depart="4.00" departLane="-96823257_0" departPos="5.10" departSpeed="0.00" departDelay="0.00" arrival="125.00" arrivalLane="-161671995#2_0" arrivalPos="352.85" arrivalSpeed="13.29" duration="121.00" routeLength="1185.73" waitSteps="18" rerouteNo="0" devices="tripinfo_4" vType="DEFAULT_VEHTYPE" vaporized=""/>
    <tripinfo id="17" depart="17.00" departLane="-96823256_0" departPos="5.10" departSpeed="0.00" departDelay="0.00" arrival="127.00" arrivalLane="-24511548#0_0" arrivalPos="152.08" arrivalSpeed="21.89" duration="110.00" routeLength="835.23" waitSteps="26" rerouteNo="0" devices="tripinfo_17" vType="DEFAULT_VEHTYPE" vaporized=""/>
    <tripinfo id="0" depart="0.00" departLane="175565015#2_0" departPos="5.10" departSpeed="0.00" departDelay="0.00" arrival="128.00" arrivalLane="-161671995#0_0" arrivalPos="215.33" arrivalSpeed="5.61" duration="128.00" routeLength="848.54" waitSteps="40" rerouteNo="0" devices="tripinfo_0" vType="DEFAULT_VEHTYPE" vaporized=""/>
    <tripinfo id="38" depart="38.00" departLane="-96823252#2_0" departPos="5.10" departSpeed="0.00" departDelay="0.00" arrival="131.00" arrivalLane="-96823257_0" arrivalPos="211.72" arrivalSpeed="13.59" duration="93.00" routeLength="1042.18" waitSteps="0" rerouteNo="0" devices="tripinfo_38" vType="DEFAULT_VEHTYPE" vaporized=""/>
    <tripinfo id="5" depart="7.00" departLane="-96823257_0" departPos="5.10" departSpeed="0.00" departDelay="2.00" arrival="159.00" arrivalLane="24448028#1_0" arrivalPos="416.11" arrivalSpeed="13.31" duration="152.00" routeLength="1111.47" waitSteps="44" rerouteNo="0" devices="tripinfo_5" vType="DEFAULT_VEHTYPE" vaporized=""/>
    <tripinfo id="11" depart="11.00" departLane="96823254#3_0" departPos="5.10" departSpeed="0.00" departDelay="0.00" arrival="166.00" arrivalLane="-96823244#5_0" arrivalPos="279.89" arrivalSpeed="7.82" duration="155.00" routeLength="945.22" waitSteps="54" rerouteNo="0" devices="tripinfo_11" vType="DEFAULT_VEHTYPE" vaporized=""/>
    <tripinfo id="37" depart="37.00" departLane="161671995#2_0" departPos="5.10" departSpeed="0.00" departDelay="0.00" arrival="172.00" arrivalLane="24448028#1_0" arrivalPos="416.11" arrivalSpeed="13.04" duration="135.00" routeLength="1332.04" waitSteps="6" rerouteNo="0" devices="tripinfo_37" vType="DEFAULT_VEHTYPE" vaporized=""/>
    <tripinfo id="28" depart="28.00" departLane="175565015#2_0" departPos="5.10" departSpeed="0.00" departDelay="0.00" arrival="172.00" arrivalLane="-96823245_0" arrivalPos="91.62" arrivalSpeed="12.96" duration="144.00" routeLength="1069.92" waitSteps="42" rerouteNo="0" devices="tripinfo_28" vType="DEFAULT_VEHTYPE" vaporized=""/>
    <tripinfo id="39" depart="39.00" departLane="-161671995#2_0" departPos="5.10" departSpeed="0.00" departDelay="0.00" arrival="172.00" arrivalLane="97817445#3_0" arrivalPos="45.08" arrivalSpeed="13.82" duration="133.00" routeLength="798.21" waitSteps="36" rerouteNo="0" devices="tripinfo_39" vType="DEFAULT_VEHTYPE" vaporized=""/>
    <tripinfo id="34" depart="34.00" departLane="-96823243_0" departPos="5.10" departSpeed="0.00" departDelay="0.00" arrival="174.00" arrivalLane="96823244#6_0" arrivalPos="145.60" arrivalSpeed="13.59" duration="140.00" routeLength="1515.04" waitSteps="28" rerouteNo="0" devices="tripinfo_34" vType="DEFAULT_VEHTYPE" vaporized=""/>
    <tripinfo id="41" depart="42.00" departLane="-161671995#2_0" departPos="5.10" departSpeed="0.00" departDelay="1.00" arrival="175.00" arrivalLane="-175565015#0_0" arrivalPos="99.88" arrivalSpeed="21.00" duration="133.00" routeLength="1151.64" waitSteps="26" rerouteNo="0" devices="tripinfo_41" vType="DEFAULT_VEHTYPE" vaporized=""/>
    <tripinfo id="19" depart="19.00" departLane="-96823255_0" departPos="5.10" departSpeed="0.00" departDelay="0.00" arrival="176.00" arrivalLane="96823249#0_0" arrivalPos="102.77" arrivalSpeed="12.60" duration="157.00" routeLength="870.63" waitSteps="56" rerouteNo="0" devices="tripinfo_19" vType="DEFAULT_VEHTYPE" vaporized=""/>
    <tripinfo id="10" depart="10.00" departLane="96823245_0" departPos="5.10" departSpeed="0.00" departDelay="0.00" arrival="179.00" arrivalLane="-96823256_0" arrivalPos="218.58" arrivalSpeed="13.35" duration="169.00" routeLength="841.34" waitSteps="72" rerouteNo="0" devices="tripinfo_10" vType="DEFAULT_VEHTYPE" vaporized=""/>
    <tripinfo id="43" depart="49.00" departLane="-161671995#2_0" departPos="5.10" departSpeed="0.00" departDelay="6.00" arrival="179.00" arrivalLane="96823244#0_0" arrivalPos="63.21" arrivalSpeed="13.32" duration="130.00" routeLength="1038.41" waitSteps="22" rerouteNo="0" devices="tripinfo_43" vType="DEFAULT_VEHTYPE" vaporized=""/>
    <tripinfo id="9" depart="9.00" departLane="-24448028#1_0" departPos="5.10" departSpeed="0.00" departDelay="0.00" arrival="183.00" arrivalLane="96823249#1_0" arrivalPos="268.17" arrivalSpeed="12.70" duration="174.00" routeLength="1010.07" waitSteps="72" rerouteNo="0" devices="tripinfo_9" vType="DEFAULT_VEHTYPE" vaporized=""/>
    <tripinfo id="36" depart="36.00" departLane="-175565015#2_0" departPos="5.10" departSpeed="0.00" departDelay="0.00" arrival="184.00" arrivalLane="-96823244#5_0" arrivalPos="279.89" arrivalSpeed="13.01" duration="148.00" routeLength="1002.66" waitSteps="53" rerouteNo="0" devices="tripinfo_36" vType="DEFAULT_VEHTYPE" vaporized=""/>
    <tripinfo id="44" depart="44.00" departLane="-24511548#3_0" departPos="5.10" departSpeed="0.00" departDelay="0.00" arrival="184.00" arrivalLane="-96823244#2_0" arrivalPos="47.36" arrivalSpeed="6.65" duration="140.00" routeLength="1306.44" waitSteps="34" rerouteNo="0" devices="tripinfo_44" vType="DEFAULT_VEHTYPE" vaporized=""/>
    <tripinfo id="8" depart="10.00" departLane="-96823244#5_0" departPos="5.10" departSpeed="0.00" departDelay="2.00" arrival="187.00" arrivalLane="96823249#1_0" arrivalPos="268.17" arrivalSpeed="13.49" duration="177.00" routeLength="1185.95" waitSteps="48" rerouteNo="0" devices="tripinfo_8" vType="DEFAULT_VEHTYPE" vaporized=""/>
    <tripinfo id="31" depart="31.00" departLane="161671995#2_0" departPos="5.10" departSpeed="0.00" departDelay="0.00" arrival="187.00" arrivalLane="96823255_0" arrivalPos="217.72" arrivalSpeed="13.85" duration="156.00" routeLength="1503.47" waitSteps="36" rerouteNo="0" devices="tripinfo_31" vType="DEFAULT_VEHTYPE" vaporized=""/>
    <tripinfo id="42" depart="42.00" departLane="96823245_0" departPos="5.10" departSpeed="0.00" departDelay="0.00" arrival="188.00" arrivalLane="97817445#1_0" arrivalPos="88.28" arrivalSpeed="12.83" duration="146.00" routeLength="1179.46" waitSteps="22" rerouteNo="0" devices="tripinfo_42" vType="DEFAULT_VEHTYPE" vaporized=""/>
    <tripinfo id="27" depart="27.00" departLane="24448028#2_0" departPos="5.10" departSpeed="0.00" departDelay="0.00" arrival="189.00" arrivalLane="-96823252#2_0" arrivalPos="90.85" arrivalSpeed="13.03" duration="162.00" routeLength="1547.03" waitSteps="4" rerouteNo="0" devices="tripinfo_27" vType="DEFAULT_VEHTYPE" vaporized=""/>
    <tripinfo id="16" depart="16.00" departLane="96823254#0_0" departPos="5.10" departSpeed="0.00" departDelay="0.00" arrival="190.00" arrivalLane="-24511548#0_0" arrivalPos="152.08" arrivalSpeed="21.31" duration="174.00" routeLength="1048.85" waitSteps="66" rerouteNo="0" devices="tripinfo_16" vType="DEFAULT_VEHTYPE" vaporized=""/>
    <tripinfo id="32" depart="34.00" departLane="161671995#2_0" departPos="5.10" departSpeed="0.00" departDelay="2.00" arrival="191.00" arrivalLane="96823254#3_0" arrivalPos="261.93" arrivalSpeed="13.12" duration="157.00" routeLength="1310.88" waitSteps="31" rerouteNo="0" devices="tripinfo_32" vType="DEFAULT_VEHTYPE" vaporized=""/>
    <tripinfo id="49" depart="49.00" departLane="-96823252#1_0" departPos="5.10" departSpeed="0.00" departDelay="0.00" arrival="192.00" arrivalLane="96823249#1_0" arrivalPos="268.17" arrivalSpeed="12.71" duration="143.00" routeLength="835.92" waitSteps="52" rerouteNo="0" devices="tripinfo_49" vType="DEFAULT_VEHTYPE" vaporized=""/>
    <tripinfo id="26" depart="26.00" departLane="-24448028#2_0" departPos="5.10" departSpeed="0.00" departDelay="0.00" arrival="193.00" arrivalLane="96823252#0_0" arrivalPos="85.62" arrivalSpeed="12.94" duration="167.00" routeLength="1051.29" waitSteps="59" rerouteNo="0" devices="tripinfo_26" vType="DEFAULT_VEHTYPE" vaporized=""/>
    <tripinfo id="3" depart="3.00" departLane="-96823249#0_0" departPos="5.10" departSpeed="0.00" departDelay="0.00" arrival="211.00" arrivalLane="161671995#2_0" arrivalPos="352.85" arrivalSpeed="12.61" duration="208.00" routeLength="932.10" waitSteps="105" rerouteNo="0" devices="tripinfo_3" vType="DEFAULT_VEHTYPE" vaporized=""/>
    <tripinfo id="23" depart="23.00" departLane="-24448028#2_0" departPos="5.10" departSpeed="0.00" departDelay="0.00" arrival="215.00" arrivalLane="96823252#2_0" arrivalPos="92.07" arrivalSpeed="13.02" duration="192.00" routeLength="1261.56" waitSteps="61" rerouteNo="0" devices="tripinfo_23" vType="DEFAULT_VEHTYPE" vaporized=""/>
    <tripinfo id="33" depart="33.00" departLane="96823244#6_0" departPos="5.10" departSpeed="0.00" departDelay="0.00" arrival="215.00" arrivalLane="24448947#2_0" arrivalPos="42.53" arrivalSpeed="13.24" duration="182.00" routeLength="1076.23" waitSteps="63" rerouteNo="0" devices="tripinfo_33" vType="DEFAULT_VEHTYPE" vaporized=""/>
    <tripinfo id="35" depart="35.00" departLane="24448028#1_0" departPos="5.10" departSpeed="0.00" departDelay="0.00" arrival="221.00" arrivalLane="96823249#2_0" arrivalPos="101.09" arrivalSpeed="13.39" duration="186.00" routeLength="1528.33" waitSteps="44" rerouteNo="0" devices="tripinfo_35" vType="DEFAULT_VEHTYPE" vaporized=""/>
    <tripinfo id="25" depart="25.00" departLane="96823249#1_0" departPos="5.10" departSpeed="0.00" departDelay="0.00" arrival="225.00" arrivalLane="96823243_0" arrivalPos="215.98" arrivalSpeed="12.84" duration="200.00" routeLength="1500.64" waitSteps="57" rerouteNo="0" devices="tripinfo_25" vType="DEFAULT_VEHTYPE" vaporized=""/>
    <tripinfo id="47" depart="47.00" departLane="96823252#1_0" departPos="5.10" departSpeed="0.00" departDelay="0.00" arrival="233.00" arrivalLane="24511548#2_0" arrivalPos="222.44" arrivalSpeed="21.89" duration="186.00" routeLength="1583.64" waitSteps="26" rerouteNo="0" devices="tripinfo_47" vType="DEFAULT_VEHTYPE" vaporized=""/>
    <tripinfo id="46" depart="46.00" departLane="-96823250_0" departPos="5.10" departSpeed="0.00" departDelay="0.00" arrival="237.00" arrivalLane="-24511548#1_0" arrivalPos="431.26" arrivalSpeed="20.96" duration="191.00" routeLength="1427.48" waitSteps="62" rerouteNo="0" devices="tripinfo_46" vType="DEFAULT_VEHTYPE" vaporized=""/>
    <tripinfo id="29" depart="29.00" departLane="-96823252#1_0" departPos="5.10" departSpeed="0.00" departDelay="0.00" arrival="240.00" arrivalLane="-24511548#1_0" arrivalPos="431.26" arrivalSpeed="21.25" duration="211.00" routeLength="1664.53" waitSteps="53" rerouteNo="0" devices="tripinfo_29" vType="DEFAULT_VEHTYPE" vaporized=""/>
    <tripinfo id="24" depart="24.00" departLane="96823252#1_0" departPos="5.10" departSpeed="0.00" departDelay="0.00" arrival="274.00" arrivalLane="-24448028#1_0" arrivalPos="421.11" arrivalSpeed="13.82" duration="250.00" routeLength="1629.74" waitSteps="83" rerouteNo="0" devices="tripinfo_24" vType="DEFAULT_VEHTYPE" vaporized=""/>
</tripinfos>
