<?xml version="1.0" encoding="UTF-8"?>

<!-- generated on Wed 10 Dec 2014 03:55:34 PM GST by SUMO gui Version 0.21.0
<?xml version="1.0" encoding="UTF-8"?>

<configuration xmlns:xsi="http://www.w3.org/2001/XMLSchema-instance" xsi:noNamespaceSchemaLocation="http://sumo-sim.org/xsd/sumo-gui.exeConfiguration.xsd">

    <input>
        <net-file value="data/map.net.xml"/>
        <route-files value="data/map.rou.xml"/>
        <additional-files value="data/map.poly.xml"/>
    </input>

    <output>
        <tripinfo-output value="tripinfo.xml"/>
        <save-state.prefix value="data/state"/>
    </output>

    <time>
        <begin value="0"/>
    </time>

    <report>
        <verbose value="true"/>
        <no-step-log value="true"/>
    </report>

    <emissions>
        <phemlight-path value="data/./PHEMlight/"/>
    </emissions>

    <traci_server>
        <remote-port value="8873"/>
    </traci_server>

    <gui_only>
        <gui-settings-file value="data/gui-settings.xml"/>
    </gui_only>

</configuration>
-->

<tripinfos xmlns:xsi="http://www.w3.org/2001/XMLSchema-instance" xsi:noNamespaceSchemaLocation="http://sumo-sim.org/xsd/tripinfo_file.xsd">
    <tripinfo id="2589" depart="28.00" departLane="87307137_0" departPos="5.10" departSpeed="0.00" departDelay="2.11" arrival="61.00" arrivalLane="87307137_0" arrivalPos="569.25" arrivalSpeed="15.10" duration="33.00" routeLength="564.15" waitSteps="0" rerouteNo="0" devices="tripinfo_2589" vType="DEFAULT_VEHTYPE" vaporized=""/>
    <tripinfo id="2552" depart="25.00" departLane="8311003_0" departPos="5.10" departSpeed="0.00" departDelay="-0.52" arrival="67.00" arrivalLane="8311003_0" arrivalPos="785.18" arrivalSpeed="22.05" duration="42.00" routeLength="780.08" waitSteps="0" rerouteNo="0" devices="tripinfo_2552" vType="DEFAULT_VEHTYPE" vaporized=""/>
    <tripinfo id="62" depart="0.00" departLane="224324771_0" departPos="5.10" departSpeed="0.00" departDelay="-0.62" arrival="69.00" arrivalLane="224324824#0_0" arrivalPos="234.11" arrivalSpeed="21.87" duration="69.00" routeLength="1327.77" waitSteps="0" rerouteNo="0" devices="tripinfo_62" vType="DEFAULT_VEHTYPE" vaporized=""/>
    <tripinfo id="1565" depart="15.00" departLane="223517419#2_0" departPos="5.10" departSpeed="0.00" departDelay="-0.65" arrival="69.00" arrivalLane="223517464_0" arrivalPos="64.98" arrivalSpeed="17.97" duration="54.00" routeLength="784.89" waitSteps="0" rerouteNo="0" devices="tripinfo_1565" vType="DEFAULT_VEHTYPE" vaporized=""/>
    <tripinfo id="2872" depart="28.00" departLane="-87307166#6_0" departPos="5.10" departSpeed="0.00" departDelay="-0.72" arrival="72.00" arrivalLane="87307166#3_0" arrivalPos="143.31" arrivalSpeed="21.87" duration="44.00" routeLength="667.13" waitSteps="0" rerouteNo="0" devices="tripinfo_2872" vType="DEFAULT_VEHTYPE" vaporized=""/>
    <tripinfo id="636" depart="6.00" departLane="88376137#3_0" departPos="5.10" departSpeed="0.00" departDelay="-0.36" arrival="81.00" arrivalLane="88376142_0" arrivalPos="974.54" arrivalSpeed="21.16" duration="75.00" routeLength="1445.02" waitSteps="0" rerouteNo="0" devices="tripinfo_636" vType="DEFAULT_VEHTYPE" vaporized=""/>
    <tripinfo id="263" depart="2.00" departLane="224344471#16_0" departPos="5.10" departSpeed="0.00" departDelay="-0.63" arrival="85.00" arrivalLane="-224343255#3_0" arrivalPos="82.84" arrivalSpeed="21.18" duration="83.00" routeLength="1297.31" waitSteps="0" rerouteNo="0" devices="tripinfo_263" vType="DEFAULT_VEHTYPE" vaporized=""/>
    <tripinfo id="2166" depart="21.00" departLane="222636183#0_0" departPos="5.10" departSpeed="0.00" departDelay="-0.66" arrival="89.00" arrivalLane="222609139_0" arrivalPos="174.30" arrivalSpeed="21.21" duration="68.00" routeLength="1024.66" waitSteps="0" rerouteNo="0" devices="tripinfo_2166" vType="DEFAULT_VEHTYPE" vaporized=""/>
    <tripinfo id="2754" depart="34.00" departLane="-224343216#0_0" departPos="5.10" departSpeed="0.00" departDelay="6.46" arrival="90.00" arrivalLane="24395750#0-AddedOffRampEdge_0" arrivalPos="97.00" arrivalSpeed="26.65" duration="56.00" routeLength="1271.47" waitSteps="0" rerouteNo="0" devices="tripinfo_2754" vType="DEFAULT_VEHTYPE" vaporized=""/>
    <tripinfo id="2192" depart="21.00" departLane="221976979#0_0" departPos="5.10" departSpeed="0.00" departDelay="-0.92" arrival="96.00" arrivalLane="-223517338#4_0" arrivalPos="579.84" arrivalSpeed="22.12" duration="75.00" routeLength="1467.00" waitSteps="0" rerouteNo="0" devices="tripinfo_2192" vType="DEFAULT_VEHTYPE" vaporized=""/>
    <tripinfo id="1051" depart="10.00" departLane="24396747#6_0" departPos="5.10" departSpeed="0.00" departDelay="-0.51" arrival="96.00" arrivalLane="224343293#10_0" arrivalPos="95.27" arrivalSpeed="21.94" duration="86.00" routeLength="1292.99" waitSteps="0" rerouteNo="0" devices="tripinfo_1051" vType="DEFAULT_VEHTYPE" vaporized=""/>
    <tripinfo id="880" depart="8.00" departLane="87307296#1_0" departPos="5.10" departSpeed="0.00" departDelay="-0.80" arrival="97.00" arrivalLane="87307294_0" arrivalPos="247.80" arrivalSpeed="22.14" duration="89.00" routeLength="1415.22" waitSteps="0" rerouteNo="0" devices="tripinfo_880" vType="DEFAULT_VEHTYPE" vaporized=""/>
    <tripinfo id="395" depart="3.00" departLane="200764200#0_0" departPos="5.10" departSpeed="0.00" departDelay="-0.95" arrival="98.00" arrivalLane="228710166#1_0" arrivalPos="78.78" arrivalSpeed="12.62" duration="95.00" routeLength="1183.87" waitSteps="9" rerouteNo="0" devices="tripinfo_395" vType="DEFAULT_VEHTYPE" vaporized=""/>
    <tripinfo id="960" depart="9.00" departLane="223639445#3_0" departPos="5.10" departSpeed="0.00" departDelay="-0.60" arrival="99.00" arrivalLane="201576299_0" arrivalPos="469.89" arrivalSpeed="21.32" duration="90.00" routeLength="1636.97" waitSteps="0" rerouteNo="0" devices="tripinfo_960" vType="DEFAULT_VEHTYPE" vaporized=""/>
    <tripinfo id="4578" depart="45.00" departLane="88376137#4_0" departPos="5.10" departSpeed="0.00" departDelay="-0.78" arrival="101.00" arrivalLane="275463909#1_0" arrivalPos="96.10" arrivalSpeed="12.64" duration="56.00" routeLength="331.58" waitSteps="23" rerouteNo="0" devices="tripinfo_4578" vType="DEFAULT_VEHTYPE" vaporized=""/>
    <tripinfo id="1291" depart="12.00" departLane="201479195#4_0" departPos="5.10" departSpeed="0.00" departDelay="-0.91" arrival="102.00" arrivalLane="201479197#1_0" arrivalPos="892.80" arrivalSpeed="21.91" duration="90.00" routeLength="1547.28" waitSteps="0" rerouteNo="0" devices="tripinfo_1291" vType="DEFAULT_VEHTYPE" vaporized=""/>
    <tripinfo id="3393" depart="40.00" departLane="-87306999#1_0" departPos="5.10" departSpeed="0.00" departDelay="6.07" arrival="105.00" arrivalLane="223517348#1_1" arrivalPos="66.11" arrivalSpeed="21.93" duration="65.00" routeLength="1007.61" waitSteps="0" rerouteNo="0" devices="tripinfo_3393" vType="DEFAULT_VEHTYPE" vaporized=""/>
    <tripinfo id="531" depart="5.00" departLane="86572097#2-AddedOffRampEdge_0" departPos="5.10" departSpeed="0.00" departDelay="-0.31" arrival="108.00" arrivalLane="86572097#5_0" arrivalPos="1119.69" arrivalSpeed="32.90" duration="103.00" routeLength="3062.11" waitSteps="0" rerouteNo="0" devices="tripinfo_531" vType="DEFAULT_VEHTYPE" vaporized=""/>
    <tripinfo id="2447" depart="24.00" departLane="155309522_0" departPos="5.10" departSpeed="0.00" departDelay="-0.47" arrival="114.00" arrivalLane="224334769#0_0" arrivalPos="1293.18" arrivalSpeed="22.05" duration="90.00" routeLength="1934.80" waitSteps="0" rerouteNo="0" devices="tripinfo_2447" vType="DEFAULT_VEHTYPE" vaporized=""/>
    <tripinfo id="4808" depart="48.00" departLane="199894462_0" departPos="5.10" departSpeed="0.00" departDelay="-0.08" arrival="116.00" arrivalLane="224371151#1_0" arrivalPos="539.34" arrivalSpeed="22.07" duration="68.00" routeLength="1063.33" waitSteps="0" rerouteNo="0" devices="tripinfo_4808" vType="DEFAULT_VEHTYPE" vaporized=""/>
    <tripinfo id="3684" depart="36.00" departLane="-244554415#9_0" departPos="5.10" departSpeed="0.00" departDelay="-0.84" arrival="117.00" arrivalLane="-275465535#1_0" arrivalPos="91.66" arrivalSpeed="12.99" duration="81.00" routeLength="631.88" waitSteps="6" rerouteNo="0" devices="tripinfo_3684" vType="DEFAULT_VEHTYPE" vaporized=""/>
    <tripinfo id="2247" depart="22.00" departLane="99045854#2_0" departPos="5.10" departSpeed="0.00" departDelay="-0.47" arrival="117.00" arrivalLane="78982771#3_0" arrivalPos="39.41" arrivalSpeed="21.28" duration="95.00" routeLength="606.28" waitSteps="30" rerouteNo="0" devices="tripinfo_2247" vType="DEFAULT_VEHTYPE" vaporized=""/>
    <tripinfo id="4636" depart="46.00" departLane="224343306#0_0" departPos="5.10" departSpeed="0.00" departDelay="-0.36" arrival="118.00" arrivalLane="-224343236_0" arrivalPos="126.56" arrivalSpeed="21.31" duration="72.00" routeLength="954.87" waitSteps="1" rerouteNo="0" devices="tripinfo_4636" vType="DEFAULT_VEHTYPE" vaporized=""/>
    <tripinfo id="2099" depart="25.00" departLane="224334769#10_0" departPos="5.10" departSpeed="0.00" departDelay="4.01" arrival="124.00" arrivalLane="88376151#3_0" arrivalPos="209.86" arrivalSpeed="21.41" duration="99.00" routeLength="1947.32" waitSteps="0" rerouteNo="0" devices="tripinfo_2099" vType="DEFAULT_VEHTYPE" vaporized=""/>
    <tripinfo id="3735" depart="37.00" departLane="201576305#0_0" departPos="5.10" departSpeed="0.00" departDelay="-0.35" arrival="125.00" arrivalLane="-201576145#2_0" arrivalPos="397.11" arrivalSpeed="21.59" duration="88.00" routeLength="1364.67" waitSteps="0" rerouteNo="0" devices="tripinfo_3735" vType="DEFAULT_VEHTYPE" vaporized=""/>
    <tripinfo id="800" depart="9.00" departLane="224320547#0_0" departPos="5.10" departSpeed="0.00" departDelay="1.00" arrival="127.00" arrivalLane="224324832#0_0" arrivalPos="737.99" arrivalSpeed="20.99" duration="118.00" routeLength="2079.87" waitSteps="0" rerouteNo="0" devices="tripinfo_800" vType="DEFAULT_VEHTYPE" vaporized=""/>
    <tripinfo id="3611" depart="36.00" departLane="-224343210#7_0" departPos="5.10" departSpeed="0.00" departDelay="-0.11" arrival="127.00" arrivalLane="224343267#1_0" arrivalPos="404.62" arrivalSpeed="21.64" duration="91.00" routeLength="1643.05" waitSteps="0" rerouteNo="0" devices="tripinfo_3611" vType="DEFAULT_VEHTYPE" vaporized=""/>
    <tripinfo id="1338" depart="13.00" departLane="87306968_0" departPos="5.10" departSpeed="0.00" departDelay="-0.38" arrival="128.00" arrivalLane="87307127_0" arrivalPos="401.47" arrivalSpeed="22.09" duration="115.00" routeLength="1863.56" waitSteps="4" rerouteNo="0" devices="tripinfo_1338" vType="DEFAULT_VEHTYPE" vaporized=""/>
    <tripinfo id="633" depart="6.00" departLane="87307010#2_0" departPos="5.10" departSpeed="0.00" departDelay="-0.33" arrival="128.00" arrivalLane="-87307207#0_0" arrivalPos="346.92" arrivalSpeed="21.64" duration="122.00" routeLength="2124.66" waitSteps="0" rerouteNo="0" devices="tripinfo_633" vType="DEFAULT_VEHTYPE" vaporized=""/>
    <tripinfo id="1856" depart="18.00" departLane="-87307261_0" departPos="5.10" departSpeed="0.00" departDelay="-0.56" arrival="131.00" arrivalLane="87307182#0_0" arrivalPos="331.47" arrivalSpeed="21.86" duration="113.00" routeLength="1694.17" waitSteps="1" rerouteNo="0" devices="tripinfo_1856" vType="DEFAULT_VEHTYPE" vaporized=""/>
    <tripinfo id="1894" depart="18.00" departLane="222111140#0_0" departPos="5.10" departSpeed="0.00" departDelay="-0.94" arrival="133.00" arrivalLane="222723804#0_0" arrivalPos="278.40" arrivalSpeed="26.86" duration="115.00" routeLength="1877.00" waitSteps="9" rerouteNo="0" devices="tripinfo_1894" vType="DEFAULT_VEHTYPE" vaporized=""/>
    <tripinfo id="527" depart="5.00" departLane="87307012_0" departPos="5.10" departSpeed="0.00" departDelay="-0.27" arrival="133.00" arrivalLane="87307034_0" arrivalPos="75.07" arrivalSpeed="21.21" duration="128.00" routeLength="2394.23" waitSteps="0" rerouteNo="0" devices="tripinfo_527" vType="DEFAULT_VEHTYPE" vaporized=""/>
    <tripinfo id="1502" depart="15.00" departLane="87307166#6_0" departPos="5.10" departSpeed="0.00" departDelay="-0.02" arrival="134.00" arrivalLane="-87306991_0" arrivalPos="144.24" arrivalSpeed="21.77" duration="119.00" routeLength="1797.25" waitSteps="0" rerouteNo="0" devices="tripinfo_1502" vType="DEFAULT_VEHTYPE" vaporized=""/>
    <tripinfo id="3357" depart="33.00" departLane="223517364#1-AddedOnRampEdge_0" departPos="5.10" departSpeed="0.00" departDelay="-0.57" arrival="135.00" arrivalLane="87293192#12_0" arrivalPos="218.41" arrivalSpeed="27.01" duration="102.00" routeLength="2197.04" waitSteps="0" rerouteNo="0" devices="tripinfo_3357" vType="DEFAULT_VEHTYPE" vaporized=""/>
    <tripinfo id="3970" depart="39.00" departLane="39999961_0" departPos="5.10" departSpeed="0.00" departDelay="-0.70" arrival="137.00" arrivalLane="87307151#2_0" arrivalPos="447.26" arrivalSpeed="21.06" duration="98.00" routeLength="1919.73" waitSteps="0" rerouteNo="0" devices="tripinfo_3970" vType="DEFAULT_VEHTYPE" vaporized=""/>
    <tripinfo id="3995" depart="47.00" departLane="222041364#0_0" departPos="5.10" departSpeed="0.00" departDelay="7.05" arrival="137.00" arrivalLane="87293189_0" arrivalPos="248.20" arrivalSpeed="21.02" duration="90.00" routeLength="1702.28" waitSteps="0" rerouteNo="0" devices="tripinfo_3995" vType="DEFAULT_VEHTYPE" vaporized=""/>
    <tripinfo id="2053" depart="20.00" departLane="155310142#3_0" departPos="5.10" departSpeed="0.00" departDelay="-0.53" arrival="138.00" arrivalLane="155405928#3-AddedOnRampEdge_0" arrivalPos="97.55" arrivalSpeed="22.15" duration="118.00" routeLength="2373.47" waitSteps="0" rerouteNo="0" devices="tripinfo_2053" vType="DEFAULT_VEHTYPE" vaporized=""/>
    <tripinfo id="3953" depart="39.00" departLane="24186156#4_0" departPos="5.10" departSpeed="0.00" departDelay="-0.53" arrival="140.00" arrivalLane="222773393#2_0" arrivalPos="583.61" arrivalSpeed="21.73" duration="101.00" routeLength="1618.17" waitSteps="0" rerouteNo="0" devices="tripinfo_3953" vType="DEFAULT_VEHTYPE" vaporized=""/>
    <tripinfo id="1406" depart="14.00" departLane="155403495#12_0" departPos="5.10" departSpeed="0.00" departDelay="-0.06" arrival="141.00" arrivalLane="155403495#14_0" arrivalPos="1489.75" arrivalSpeed="22.22" duration="127.00" routeLength="2598.87" waitSteps="0" rerouteNo="0" devices="tripinfo_1406" vType="DEFAULT_VEHTYPE" vaporized=""/>
    <tripinfo id="1101" depart="11.00" departLane="222767225#4_0" departPos="5.10" departSpeed="0.00" departDelay="-0.01" arrival="142.00" arrivalLane="-24186247#0_0" arrivalPos="576.00" arrivalSpeed="21.04" duration="131.00" routeLength="2397.71" waitSteps="0" rerouteNo="0" devices="tripinfo_1101" vType="DEFAULT_VEHTYPE" vaporized=""/>
    <tripinfo id="4014" depart="40.00" departLane="201479195#7_0" departPos="5.10" departSpeed="0.00" departDelay="-0.14" arrival="144.00" arrivalLane="201479191#1_0" arrivalPos="927.42" arrivalSpeed="21.79" duration="104.00" routeLength="1899.08" waitSteps="0" rerouteNo="0" devices="tripinfo_4014" vType="DEFAULT_VEHTYPE" vaporized=""/>
    <tripinfo id="2065" depart="20.00" departLane="224343303#0_0" departPos="5.10" departSpeed="0.00" departDelay="-0.65" arrival="145.00" arrivalLane="-224343269_0" arrivalPos="125.27" arrivalSpeed="21.73" duration="125.00" routeLength="1414.94" waitSteps="13" rerouteNo="0" devices="tripinfo_2065" vType="DEFAULT_VEHTYPE" vaporized=""/>
    <tripinfo id="138" depart="1.00" departLane="99365082#1_0" departPos="5.10" departSpeed="0.00" departDelay="-0.38" arrival="146.00" arrivalLane="99349233#3-AddedOffRampEdge_1" arrivalPos="91.85" arrivalSpeed="27.40" duration="145.00" routeLength="2663.75" waitSteps="1" rerouteNo="0" devices="tripinfo_138" vType="DEFAULT_VEHTYPE" vaporized=""/>
    <tripinfo id="4108" depart="41.00" departLane="222773395_0" departPos="5.10" departSpeed="0.00" departDelay="-0.08" arrival="148.00" arrivalLane="99998624#1_0" arrivalPos="127.76" arrivalSpeed="22.19" duration="107.00" routeLength="1770.70" waitSteps="0" rerouteNo="0" devices="tripinfo_4108" vType="DEFAULT_VEHTYPE" vaporized=""/>
    <tripinfo id="0" depart="0.00" departLane="-87307220#3_0" departPos="5.10" departSpeed="0.00" departDelay="0.00" arrival="149.00" arrivalLane="87307216#1_0" arrivalPos="394.00" arrivalSpeed="21.85" duration="149.00" routeLength="2498.31" waitSteps="0" rerouteNo="0" devices="tripinfo_0" vType="DEFAULT_VEHTYPE" vaporized=""/>
    <tripinfo id="4900" depart="49.00" departLane="-224343260#1_0" departPos="5.10" departSpeed="0.00" departDelay="0.00" arrival="149.00" arrivalLane="-224344441#1_0" arrivalPos="34.36" arrivalSpeed="12.51" duration="100.00" routeLength="994.28" waitSteps="15" rerouteNo="0" devices="tripinfo_4900" vType="DEFAULT_VEHTYPE" vaporized=""/>
    <tripinfo id="2147" depart="21.00" departLane="-223517454#1_0" departPos="5.10" departSpeed="0.00" departDelay="-0.47" arrival="150.00" arrivalLane="222603475#0_0" arrivalPos="206.11" arrivalSpeed="21.34" duration="129.00" routeLength="2282.65" waitSteps="0" rerouteNo="0" devices="tripinfo_2147" vType="DEFAULT_VEHTYPE" vaporized=""/>
    <tripinfo id="334" depart="3.00" departLane="-213572620#2_0" departPos="5.10" departSpeed="0.00" departDelay="-0.34" arrival="151.00" arrivalLane="213572625#2_0" arrivalPos="104.02" arrivalSpeed="13.66" duration="148.00" routeLength="995.21" waitSteps="55" rerouteNo="0" devices="tripinfo_334" vType="DEFAULT_VEHTYPE" vaporized=""/>
    <tripinfo id="2074" depart="20.00" departLane="-223639381#2_0" departPos="5.10" departSpeed="0.00" departDelay="-0.74" arrival="151.00" arrivalLane="201576141#0_0" arrivalPos="104.76" arrivalSpeed="20.52" duration="131.00" routeLength="1660.45" waitSteps="0" rerouteNo="0" devices="tripinfo_2074" vType="DEFAULT_VEHTYPE" vaporized=""/>
    <tripinfo id="2892" depart="31.00" departLane="289639261#8_0" departPos="5.10" departSpeed="0.00" departDelay="2.08" arrival="152.00" arrivalLane="10710912#1_0" arrivalPos="498.72" arrivalSpeed="21.89" duration="121.00" routeLength="2876.39" waitSteps="0" rerouteNo="0" devices="tripinfo_2892" vType="DEFAULT_VEHTYPE" vaporized=""/>
    <tripinfo id="147" depart="4.00" departLane="-213572644_0" departPos="5.10" departSpeed="0.00" departDelay="2.53" arrival="153.00" arrivalLane="99892468#0_1" arrivalPos="37.49" arrivalSpeed="27.10" duration="149.00" routeLength="1300.64" waitSteps="8" rerouteNo="0" devices="tripinfo_147" vType="DEFAULT_VEHTYPE" vaporized=""/>
    <tripinfo id="996" depart="9.00" departLane="228714002_0" departPos="5.10" departSpeed="0.00" departDelay="-0.96" arrival="154.00" arrivalLane="99358494#0_0" arrivalPos="905.25" arrivalSpeed="27.78" duration="145.00" routeLength="2859.71" waitSteps="0" rerouteNo="0" devices="tripinfo_996" vType="DEFAULT_VEHTYPE" vaporized=""/>
    <tripinfo id="3165" depart="31.00" departLane="201576303#2_0" departPos="5.10" departSpeed="0.00" departDelay="-0.65" arrival="154.00" arrivalLane="-201576713_0" arrivalPos="263.33" arrivalSpeed="21.92" duration="123.00" routeLength="1676.84" waitSteps="0" rerouteNo="0" devices="tripinfo_3165" vType="DEFAULT_VEHTYPE" vaporized=""/>
    <tripinfo id="3062" depart="30.00" departLane="-89418724#1_0" departPos="5.10" departSpeed="0.00" departDelay="-0.62" arrival="154.00" arrivalLane="89418720_0" arrivalPos="172.20" arrivalSpeed="13.85" duration="124.00" routeLength="1488.46" waitSteps="0" rerouteNo="0" devices="tripinfo_3062" vType="DEFAULT_VEHTYPE" vaporized=""/>
    <tripinfo id="1225" depart="12.00" departLane="224343266#5_0" departPos="5.10" departSpeed="0.00" departDelay="-0.25" arrival="159.00" arrivalLane="224343255#3_0" arrivalPos="82.84" arrivalSpeed="21.14" duration="147.00" routeLength="1212.97" waitSteps="45" rerouteNo="0" devices="tripinfo_1225" vType="DEFAULT_VEHTYPE" vaporized=""/>
    <tripinfo id="2301" depart="23.00" departLane="-87306999#1_0" departPos="5.10" departSpeed="0.00" departDelay="-0.01" arrival="163.00" arrivalLane="-87307265#0_0" arrivalPos="301.11" arrivalSpeed="21.12" duration="140.00" routeLength="2312.85" waitSteps="0" rerouteNo="0" devices="tripinfo_2301" vType="DEFAULT_VEHTYPE" vaporized=""/>
    <tripinfo id="4628" depart="46.00" departLane="222609122#0_0" departPos="5.10" departSpeed="0.00" departDelay="-0.28" arrival="164.00" arrivalLane="87293192#10_0" arrivalPos="55.94" arrivalSpeed="27.26" duration="118.00" routeLength="1961.37" waitSteps="0" rerouteNo="0" devices="tripinfo_4628" vType="DEFAULT_VEHTYPE" vaporized=""/>
    <tripinfo id="4028" depart="40.00" departLane="224324880#3_0" departPos="5.10" departSpeed="0.00" departDelay="-0.28" arrival="165.00" arrivalLane="224324820#4-AddedOnRampEdge_0" arrivalPos="101.44" arrivalSpeed="21.63" duration="125.00" routeLength="2056.74" waitSteps="0" rerouteNo="0" devices="tripinfo_4028" vType="DEFAULT_VEHTYPE" vaporized=""/>
    <tripinfo id="639" depart="6.00" departLane="222767199#1_0" departPos="5.10" departSpeed="0.00" departDelay="-0.39" arrival="165.00" arrivalLane="201500462#0_0" arrivalPos="516.18" arrivalSpeed="22.00" duration="159.00" routeLength="2828.34" waitSteps="0" rerouteNo="0" devices="tripinfo_639" vType="DEFAULT_VEHTYPE" vaporized=""/>
    <tripinfo id="2244" depart="22.00" departLane="-224324790#4_0" departPos="5.10" departSpeed="0.00" departDelay="-0.44" arrival="165.00" arrivalLane="224324801#8_0" arrivalPos="224.43" arrivalSpeed="21.81" duration="143.00" routeLength="2534.85" waitSteps="0" rerouteNo="0" devices="tripinfo_2244" vType="DEFAULT_VEHTYPE" vaporized=""/>
    <tripinfo id="4144" depart="41.00" departLane="-201479196#3_0" departPos="5.10" departSpeed="0.00" departDelay="-0.44" arrival="167.00" arrivalLane="201479196#2_0" arrivalPos="849.33" arrivalSpeed="21.34" duration="126.00" routeLength="2488.44" waitSteps="0" rerouteNo="0" devices="tripinfo_4144" vType="DEFAULT_VEHTYPE" vaporized=""/>
    <tripinfo id="1441" depart="14.00" departLane="201479194#0_0" departPos="5.10" departSpeed="0.00" departDelay="-0.41" arrival="169.00" arrivalLane="201479198#1_0" arrivalPos="959.47" arrivalSpeed="21.04" duration="155.00" routeLength="2980.47" waitSteps="0" rerouteNo="0" devices="tripinfo_1441" vType="DEFAULT_VEHTYPE" vaporized=""/>
    <tripinfo id="4692" depart="46.00" departLane="-228709329#2_0" departPos="5.10" departSpeed="0.00" departDelay="-0.92" arrival="170.00" arrivalLane="228709350#1_0" arrivalPos="261.37" arrivalSpeed="13.63" duration="124.00" routeLength="615.78" waitSteps="60" rerouteNo="0" devices="tripinfo_4692" vType="DEFAULT_VEHTYPE" vaporized=""/>
    <tripinfo id="2784" depart="34.00" departLane="-200764164#2_0" departPos="5.10" departSpeed="0.00" departDelay="6.16" arrival="170.00" arrivalLane="228709893#0_0" arrivalPos="86.21" arrivalSpeed="13.46" duration="136.00" routeLength="2040.03" waitSteps="21" rerouteNo="0" devices="tripinfo_2784" vType="DEFAULT_VEHTYPE" vaporized=""/>
    <tripinfo id="355" depart="3.00" departLane="222111135#11_0" departPos="5.10" departSpeed="0.00" departDelay="-0.55" arrival="171.00" arrivalLane="-223518167_0" arrivalPos="138.03" arrivalSpeed="21.33" duration="168.00" routeLength="3294.47" waitSteps="0" rerouteNo="0" devices="tripinfo_355" vType="DEFAULT_VEHTYPE" vaporized=""/>
    <tripinfo id="3934" depart="44.00" departLane="-224324776#3_0" departPos="5.10" departSpeed="0.00" departDelay="4.66" arrival="171.00" arrivalLane="224324879#1_0" arrivalPos="152.92" arrivalSpeed="21.00" duration="127.00" routeLength="1948.83" waitSteps="1" rerouteNo="0" devices="tripinfo_3934" vType="DEFAULT_VEHTYPE" vaporized=""/>
    <tripinfo id="4152" depart="41.00" departLane="87307027#0_0" departPos="5.10" departSpeed="0.00" departDelay="-0.52" arrival="172.00" arrivalLane="50220417#10-AddedOnRampEdge_1" arrivalPos="98.52" arrivalSpeed="26.81" duration="131.00" routeLength="2927.98" waitSteps="0" rerouteNo="0" devices="tripinfo_4152" vType="DEFAULT_VEHTYPE" vaporized=""/>
    <tripinfo id="3137" depart="31.00" departLane="24494640#2_0" departPos="5.10" departSpeed="0.00" departDelay="-0.37" arrival="172.00" arrivalLane="213572599#1_0" arrivalPos="689.53" arrivalSpeed="13.37" duration="141.00" routeLength="2270.61" waitSteps="0" rerouteNo="0" devices="tripinfo_3137" vType="DEFAULT_VEHTYPE" vaporized=""/>
    <tripinfo id="921" depart="9.00" departLane="99810906#1_0" departPos="5.10" departSpeed="0.00" departDelay="-0.21" arrival="173.00" arrivalLane="224324860_0" arrivalPos="111.94" arrivalSpeed="21.51" duration="164.00" routeLength="2614.79" waitSteps="10" rerouteNo="0" devices="tripinfo_921" vType="DEFAULT_VEHTYPE" vaporized=""/>
    <tripinfo id="238" depart="2.00" departLane="-224344472#3_0" departPos="5.10" departSpeed="0.00" departDelay="-0.38" arrival="176.00" arrivalLane="228710185#0_0" arrivalPos="87.13" arrivalSpeed="12.80" duration="174.00" routeLength="2257.86" waitSteps="13" rerouteNo="0" devices="tripinfo_238" vType="DEFAULT_VEHTYPE" vaporized=""/>
    <tripinfo id="1281" depart="12.00" departLane="201479191#1_0" departPos="5.10" departSpeed="0.00" departDelay="-0.81" arrival="177.00" arrivalLane="201479252#6_0" arrivalPos="237.29" arrivalSpeed="21.97" duration="165.00" routeLength="3157.25" waitSteps="0" rerouteNo="0" devices="tripinfo_1281" vType="DEFAULT_VEHTYPE" vaporized=""/>
    <tripinfo id="4535" depart="45.00" departLane="-224343259#2_0" departPos="5.10" departSpeed="0.00" departDelay="-0.35" arrival="177.00" arrivalLane="224343243#1_0" arrivalPos="179.08" arrivalSpeed="21.58" duration="132.00" routeLength="685.99" waitSteps="45" rerouteNo="0" devices="tripinfo_4535" vType="DEFAULT_VEHTYPE" vaporized=""/>
    <tripinfo id="4646" depart="46.00" departLane="222111176#8_0" departPos="5.10" departSpeed="0.00" departDelay="-0.46" arrival="178.00" arrivalLane="99810906#4-AddedOnRampEdge_2" arrivalPos="97.01" arrivalSpeed="21.67" duration="132.00" routeLength="2954.26" waitSteps="0" rerouteNo="0" devices="tripinfo_4646" vType="DEFAULT_VEHTYPE" vaporized=""/>
    <tripinfo id="564" depart="5.00" departLane="224344469#1_0" departPos="5.10" departSpeed="0.00" departDelay="-0.64" arrival="178.00" arrivalLane="224343247#1_0" arrivalPos="850.46" arrivalSpeed="22.11" duration="173.00" routeLength="2823.35" waitSteps="0" rerouteNo="0" devices="tripinfo_564" vType="DEFAULT_VEHTYPE" vaporized=""/>
    <tripinfo id="1207" depart="12.00" departLane="200002996#0_0" departPos="5.10" departSpeed="0.00" departDelay="-0.07" arrival="178.00" arrivalLane="-276687864#3_0" arrivalPos="60.10" arrivalSpeed="13.09" duration="166.00" routeLength="3025.40" waitSteps="2" rerouteNo="0" devices="tripinfo_1207" vType="DEFAULT_VEHTYPE" vaporized=""/>
    <tripinfo id="763" depart="7.00" departLane="50338677#2_0" departPos="5.10" departSpeed="0.00" departDelay="-0.63" arrival="182.00" arrivalLane="272676612_0" arrivalPos="618.31" arrivalSpeed="26.71" duration="175.00" routeLength="3428.41" waitSteps="4" rerouteNo="0" devices="tripinfo_763" vType="DEFAULT_VEHTYPE" vaporized=""/>
    <tripinfo id="641" depart="6.00" departLane="149780417#5_0" departPos="5.10" departSpeed="0.00" departDelay="-0.41" arrival="183.00" arrivalLane="-155398513#2_0" arrivalPos="253.97" arrivalSpeed="13.42" duration="177.00" routeLength="996.58" waitSteps="77" rerouteNo="0" devices="tripinfo_641" vType="DEFAULT_VEHTYPE" vaporized=""/>
    <tripinfo id="2963" depart="29.00" departLane="-87307259#1_0" departPos="5.10" departSpeed="0.00" departDelay="-0.63" arrival="185.00" arrivalLane="-87307090_0" arrivalPos="569.65" arrivalSpeed="21.95" duration="156.00" routeLength="2776.31" waitSteps="0" rerouteNo="0" devices="tripinfo_2963" vType="DEFAULT_VEHTYPE" vaporized=""/>
    <tripinfo id="4210" depart="42.00" departLane="155309881#1_0" departPos="5.10" departSpeed="0.00" departDelay="-0.10" arrival="186.00" arrivalLane="50338679#0_0" arrivalPos="158.56" arrivalSpeed="22.13" duration="144.00" routeLength="3388.64" waitSteps="0" rerouteNo="0" devices="tripinfo_4210" vType="DEFAULT_VEHTYPE" vaporized=""/>
    <tripinfo id="4110" depart="41.00" departLane="228709328_0" departPos="5.10" departSpeed="0.00" departDelay="-0.10" arrival="187.00" arrivalLane="-228710168#0_0" arrivalPos="152.96" arrivalSpeed="13.81" duration="146.00" routeLength="1550.21" waitSteps="20" rerouteNo="0" devices="tripinfo_4110" vType="DEFAULT_VEHTYPE" vaporized=""/>
    <tripinfo id="2566" depart="25.00" departLane="224324826#1_0" departPos="5.10" departSpeed="0.00" departDelay="-0.66" arrival="190.00" arrivalLane="-224324807#1_0" arrivalPos="128.01" arrivalSpeed="21.14" duration="165.00" routeLength="2720.89" waitSteps="0" rerouteNo="0" devices="tripinfo_2566" vType="DEFAULT_VEHTYPE" vaporized=""/>
    <tripinfo id="490" depart="4.00" departLane="228710164#1_0" departPos="5.10" departSpeed="0.00" departDelay="-0.90" arrival="192.00" arrivalLane="200764200#2_0" arrivalPos="254.22" arrivalSpeed="22.03" duration="188.00" routeLength="2914.97" waitSteps="8" rerouteNo="0" devices="tripinfo_490" vType="DEFAULT_VEHTYPE" vaporized=""/>
    <tripinfo id="303" depart="3.00" departLane="289639262#3_0" departPos="5.10" departSpeed="0.00" departDelay="-0.03" arrival="194.00" arrivalLane="100700558#1_0" arrivalPos="33.35" arrivalSpeed="12.67" duration="191.00" routeLength="3301.25" waitSteps="0" rerouteNo="0" devices="tripinfo_303" vType="DEFAULT_VEHTYPE" vaporized=""/>
    <tripinfo id="3465" depart="41.00" departLane="201500281#4_0" departPos="5.10" departSpeed="0.00" departDelay="6.35" arrival="195.00" arrivalLane="222773452_0" arrivalPos="376.77" arrivalSpeed="27.29" duration="154.00" routeLength="2650.31" waitSteps="2" rerouteNo="0" devices="tripinfo_3465" vType="DEFAULT_VEHTYPE" vaporized=""/>
    <tripinfo id="3162" depart="31.00" departLane="222041364#0_0" departPos="5.10" departSpeed="0.00" departDelay="-0.62" arrival="195.00" arrivalLane="222721802#9_0" arrivalPos="298.96" arrivalSpeed="17.18" duration="164.00" routeLength="3692.69" waitSteps="0" rerouteNo="0" devices="tripinfo_3162" vType="DEFAULT_VEHTYPE" vaporized=""/>