<?xml version="1.0" encoding="UTF-8"?>

<!-- generated on Thu Jan  1 23:14:51 2015 by SUMO sumo Version 0.19.0
<?xml version="1.0" encoding="UTF-8"?>

<configuration xmlns:xsi="http://www.w3.org/2001/XMLSchema-instance" xsi:noNamespaceSchemaLocation="http://sumo-sim.org/xsd/sumoConfiguration.xsd">

    <input>
        <net-file value="tollgate/data/map.net.xml"/>
        <route-files value="tollgate/data/map.rou.xml"/>
        <additional-files value="tollgate/data/map.poly.xml"/>
    </input>

    <output>
        <tripinfo-output value="tripinfo.xml"/>
        <save-state.prefix value="tollgate/data/state"/>
    </output>

    <time>
        <begin value="0"/>
    </time>

    <report>
        <verbose value="true"/>
        <log value="output.log"/>
        <no-step-log value="true"/>
    </report>

    <traci_server>
        <remote-port value="8873"/>
    </traci_server>

    <gui_only>
        <gui-settings-file value="tollgate/data/gui-settings.xml"/>
    </gui_only>

</configuration>
-->

<detector xmlns:xsi="http://www.w3.org/2001/XMLSchema-instance" xsi:noNamespaceSchemaLocation="http://sumo-sim.org/xsd/det_e1_file.xsd">
   <interval begin="0.00" end="1.00" id="0" nVehContrib="0" flow="0.00" occupancy="0.00" speed="-1.00" length="-1.00" nVehEntered="0"/>
   <interval begin="0.00" end="1.00" id="1" nVehContrib="0" flow="0.00" occupancy="0.00" speed="-1.00" length="-1.00" nVehEntered="0"/>
   <interval begin="0.00" end="1.00" id="2" nVehContrib="0" flow="0.00" occupancy="0.00" speed="-1.00" length="-1.00" nVehEntered="0"/>
   <interval begin="0.00" end="1.00" id="3" nVehContrib="0" flow="0.00" occupancy="0.00" speed="-1.00" length="-1.00" nVehEntered="0"/>
</detector>
